Title: Actuator Controller Half-Bridge Transient Simulation
Date: Tue Jun 09 18:15:25 2026
Plotname: Transient Analysis
Flags: real
No. Variables: 7
No. Points: 1001
Variables:
	0	time	time
	1	v(vdd)	voltage
	2	v(gate_high)	voltage
	3	v(gate_low)	voltage
	4	v(phase_a)	voltage
	5	i(l_load)	current
	6	i(r_shunt)	current
Values:
0	0.000000000000e+00
	2.400000000000e+01
	0.000000000000e+00
	0.000000000000e+00
	0.000000000000e+00
	0.000000000000e+00
	0.000000000000e+00
1	1.000000000000e-08
	2.400000000000e+01
	0.000000000000e+00
	0.000000000000e+00
	0.000000000000e+00
	0.000000000000e+00
	0.000000000000e+00
2	2.000000000000e-08
	2.400000000000e+01
	0.000000000000e+00
	0.000000000000e+00
	0.000000000000e+00
	0.000000000000e+00
	0.000000000000e+00
3	3.000000000000e-08
	2.400000000000e+01
	0.000000000000e+00
	0.000000000000e+00
	0.000000000000e+00
	0.000000000000e+00
	0.000000000000e+00
4	4.000000000000e-08
	2.400000000000e+01
	0.000000000000e+00
	0.000000000000e+00
	0.000000000000e+00
	0.000000000000e+00
	0.000000000000e+00
5	5.000000000000e-08
	2.400000000000e+01
	0.000000000000e+00
	0.000000000000e+00
	0.000000000000e+00
	0.000000000000e+00
	0.000000000000e+00
6	6.000000000000e-08
	2.400000000000e+01
	0.000000000000e+00
	0.000000000000e+00
	0.000000000000e+00
	0.000000000000e+00
	0.000000000000e+00
7	7.000000000000e-08
	2.400000000000e+01
	0.000000000000e+00
	0.000000000000e+00
	0.000000000000e+00
	0.000000000000e+00
	0.000000000000e+00
8	8.000000000000e-08
	2.400000000000e+01
	0.000000000000e+00
	0.000000000000e+00
	0.000000000000e+00
	0.000000000000e+00
	0.000000000000e+00
9	9.000000000000e-08
	2.400000000000e+01
	0.000000000000e+00
	0.000000000000e+00
	0.000000000000e+00
	0.000000000000e+00
	0.000000000000e+00
10	1.000000000000e-07
	2.400000000000e+01
	0.000000000000e+00
	0.000000000000e+00
	0.000000000000e+00
	0.000000000000e+00
	0.000000000000e+00
11	1.100000000000e-07
	2.400000000000e+01
	0.000000000000e+00
	0.000000000000e+00
	0.000000000000e+00
	0.000000000000e+00
	0.000000000000e+00
12	1.200000000000e-07
	2.400000000000e+01
	0.000000000000e+00
	0.000000000000e+00
	0.000000000000e+00
	0.000000000000e+00
	0.000000000000e+00
13	1.300000000000e-07
	2.400000000000e+01
	0.000000000000e+00
	0.000000000000e+00
	0.000000000000e+00
	0.000000000000e+00
	0.000000000000e+00
14	1.400000000000e-07
	2.400000000000e+01
	0.000000000000e+00
	0.000000000000e+00
	0.000000000000e+00
	0.000000000000e+00
	0.000000000000e+00
15	1.500000000000e-07
	2.400000000000e+01
	0.000000000000e+00
	0.000000000000e+00
	0.000000000000e+00
	0.000000000000e+00
	0.000000000000e+00
16	1.600000000000e-07
	2.400000000000e+01
	0.000000000000e+00
	0.000000000000e+00
	0.000000000000e+00
	0.000000000000e+00
	0.000000000000e+00
17	1.700000000000e-07
	2.400000000000e+01
	0.000000000000e+00
	0.000000000000e+00
	0.000000000000e+00
	0.000000000000e+00
	0.000000000000e+00
18	1.800000000000e-07
	2.400000000000e+01
	0.000000000000e+00
	0.000000000000e+00
	0.000000000000e+00
	0.000000000000e+00
	0.000000000000e+00
19	1.900000000000e-07
	2.400000000000e+01
	0.000000000000e+00
	0.000000000000e+00
	0.000000000000e+00
	0.000000000000e+00
	0.000000000000e+00
20	2.000000000000e-07
	2.400000000000e+01
	0.000000000000e+00
	0.000000000000e+00
	0.000000000000e+00
	0.000000000000e+00
	0.000000000000e+00
21	2.100000000000e-07
	2.400000000000e+01
	0.000000000000e+00
	0.000000000000e+00
	0.000000000000e+00
	0.000000000000e+00
	0.000000000000e+00
22	2.200000000000e-07
	2.400000000000e+01
	0.000000000000e+00
	0.000000000000e+00
	0.000000000000e+00
	0.000000000000e+00
	0.000000000000e+00
23	2.300000000000e-07
	2.400000000000e+01
	0.000000000000e+00
	0.000000000000e+00
	0.000000000000e+00
	0.000000000000e+00
	0.000000000000e+00
24	2.400000000000e-07
	2.400000000000e+01
	0.000000000000e+00
	0.000000000000e+00
	0.000000000000e+00
	0.000000000000e+00
	0.000000000000e+00
25	2.500000000000e-07
	2.400000000000e+01
	0.000000000000e+00
	0.000000000000e+00
	0.000000000000e+00
	0.000000000000e+00
	0.000000000000e+00
26	2.600000000000e-07
	2.400000000000e+01
	0.000000000000e+00
	0.000000000000e+00
	0.000000000000e+00
	0.000000000000e+00
	0.000000000000e+00
27	2.700000000000e-07
	2.400000000000e+01
	0.000000000000e+00
	0.000000000000e+00
	0.000000000000e+00
	0.000000000000e+00
	0.000000000000e+00
28	2.800000000000e-07
	2.400000000000e+01
	0.000000000000e+00
	0.000000000000e+00
	0.000000000000e+00
	0.000000000000e+00
	0.000000000000e+00
29	2.900000000000e-07
	2.400000000000e+01
	0.000000000000e+00
	0.000000000000e+00
	0.000000000000e+00
	0.000000000000e+00
	0.000000000000e+00
30	3.000000000000e-07
	2.400000000000e+01
	0.000000000000e+00
	0.000000000000e+00
	0.000000000000e+00
	0.000000000000e+00
	0.000000000000e+00
31	3.100000000000e-07
	2.400000000000e+01
	0.000000000000e+00
	0.000000000000e+00
	0.000000000000e+00
	0.000000000000e+00
	0.000000000000e+00
32	3.200000000000e-07
	2.400000000000e+01
	0.000000000000e+00
	0.000000000000e+00
	0.000000000000e+00
	0.000000000000e+00
	0.000000000000e+00
33	3.300000000000e-07
	2.400000000000e+01
	0.000000000000e+00
	0.000000000000e+00
	0.000000000000e+00
	0.000000000000e+00
	0.000000000000e+00
34	3.400000000000e-07
	2.400000000000e+01
	0.000000000000e+00
	0.000000000000e+00
	0.000000000000e+00
	0.000000000000e+00
	0.000000000000e+00
35	3.500000000000e-07
	2.400000000000e+01
	0.000000000000e+00
	0.000000000000e+00
	0.000000000000e+00
	0.000000000000e+00
	0.000000000000e+00
36	3.600000000000e-07
	2.400000000000e+01
	0.000000000000e+00
	0.000000000000e+00
	0.000000000000e+00
	0.000000000000e+00
	0.000000000000e+00
37	3.700000000000e-07
	2.400000000000e+01
	0.000000000000e+00
	0.000000000000e+00
	0.000000000000e+00
	0.000000000000e+00
	0.000000000000e+00
38	3.800000000000e-07
	2.400000000000e+01
	0.000000000000e+00
	0.000000000000e+00
	0.000000000000e+00
	0.000000000000e+00
	0.000000000000e+00
39	3.900000000000e-07
	2.400000000000e+01
	0.000000000000e+00
	0.000000000000e+00
	0.000000000000e+00
	0.000000000000e+00
	0.000000000000e+00
40	4.000000000000e-07
	2.400000000000e+01
	0.000000000000e+00
	0.000000000000e+00
	0.000000000000e+00
	0.000000000000e+00
	0.000000000000e+00
41	4.100000000000e-07
	2.400000000000e+01
	0.000000000000e+00
	0.000000000000e+00
	0.000000000000e+00
	0.000000000000e+00
	0.000000000000e+00
42	4.200000000000e-07
	2.400000000000e+01
	0.000000000000e+00
	0.000000000000e+00
	0.000000000000e+00
	0.000000000000e+00
	0.000000000000e+00
43	4.300000000000e-07
	2.400000000000e+01
	0.000000000000e+00
	0.000000000000e+00
	0.000000000000e+00
	0.000000000000e+00
	0.000000000000e+00
44	4.400000000000e-07
	2.400000000000e+01
	0.000000000000e+00
	0.000000000000e+00
	0.000000000000e+00
	0.000000000000e+00
	0.000000000000e+00
45	4.500000000000e-07
	2.400000000000e+01
	0.000000000000e+00
	0.000000000000e+00
	0.000000000000e+00
	0.000000000000e+00
	0.000000000000e+00
46	4.600000000000e-07
	2.400000000000e+01
	0.000000000000e+00
	0.000000000000e+00
	0.000000000000e+00
	0.000000000000e+00
	0.000000000000e+00
47	4.700000000000e-07
	2.400000000000e+01
	0.000000000000e+00
	0.000000000000e+00
	0.000000000000e+00
	0.000000000000e+00
	0.000000000000e+00
48	4.800000000000e-07
	2.400000000000e+01
	0.000000000000e+00
	0.000000000000e+00
	0.000000000000e+00
	0.000000000000e+00
	0.000000000000e+00
49	4.900000000000e-07
	2.400000000000e+01
	0.000000000000e+00
	0.000000000000e+00
	0.000000000000e+00
	0.000000000000e+00
	0.000000000000e+00
50	5.000000000000e-07
	2.400000000000e+01
	0.000000000000e+00
	0.000000000000e+00
	0.000000000000e+00
	0.000000000000e+00
	0.000000000000e+00
51	5.100000000000e-07
	2.451337221550e+01
	6.800000000000e+00
	0.000000000000e+00
	5.822481436637e+00
	3.327783945477e-02
	0.000000000000e+00
52	5.200000000000e-07
	2.319389583317e+01
	1.360000000000e+01
	0.000000000000e+00
	-5.740277788858e-01
	6.644493744966e-02
	0.000000000000e+00
53	5.300000000000e-07
	2.478228018828e+01
	2.040000000000e+01
	0.000000000000e+00
	1.241520125519e+01
	9.950166250832e-02
	0.000000000000e+00
54	5.400000000000e-07
	2.353081312261e+01
	2.720000000000e+01
	0.000000000000e+00
	6.472087484045e+00
	1.324483819280e-01
	0.000000000000e+00
55	5.500000000000e-07
	2.400000000000e+01
	3.400000000000e+01
	0.000000000000e+00
	1.200000000000e+01
	1.652854617838e-01
	0.000000000000e+00
56	5.600000000000e-07
	2.444186356075e+01
	3.400000000000e+01
	0.000000000000e+00
	1.734575707168e+01
	1.980132669324e-01
	0.000000000000e+00
57	5.700000000000e-07
	2.330617971378e+01
	3.400000000000e+01
	0.000000000000e+00
	1.217453142518e+01
	2.306321610165e-01
	0.000000000000e+00
58	5.800000000000e-07
	2.467331479785e+01
	3.400000000000e+01
	0.000000000000e+00
	2.368876531900e+01
	2.631425064685e-01
	0.000000000000e+00
59	5.900000000000e-07
	2.359616711219e+01
	3.400000000000e+01
	0.000000000000e+00
	1.890778074796e+01
	2.955446645149e-01
	0.000000000000e+00
60	6.000000000000e-07
	2.400000000000e+01
	3.400000000000e+01
	0.000000000000e+00
	2.400000000000e+01
	3.278389951799e-01
	0.000000000000e+00
61	6.100000000000e-07
	2.438031549123e+01
	3.400000000000e+01
	0.000000000000e+00
	2.653543660821e+01
	3.600258572898e-01
	0.000000000000e+00
62	6.200000000000e-07
	2.340282334544e+01
	3.400000000000e+01
	0.000000000000e+00
	2.001882230295e+01
	3.921056084768e-01
	0.000000000000e+00
63	6.300000000000e-07
	2.457952741715e+01
	3.400000000000e+01
	0.000000000000e+00
	2.786351611436e+01
	4.240786051827e-01
	0.000000000000e+00
64	6.400000000000e-07
	2.365241781232e+01
	3.400000000000e+01
	0.000000000000e+00
	2.168278541548e+01
	4.559452026635e-01
	0.000000000000e+00
65	6.500000000000e-07
	2.400000000000e+01
	3.400000000000e+01
	0.000000000000e+00
	2.400000000000e+01
	4.877057549929e-01
	0.000000000000e+00
66	6.600000000000e-07
	2.432734057686e+01
	3.400000000000e+01
	0.000000000000e+00
	2.618227051240e+01
	5.193606150660e-01
	0.000000000000e+00
67	6.700000000000e-07
	2.348600529009e+01
	3.400000000000e+01
	0.000000000000e+00
	2.057336860059e+01
	5.509101346041e-01
	0.000000000000e+00
68	6.800000000000e-07
	2.449880387050e+01
	3.400000000000e+01
	0.000000000000e+00
	2.732535913668e+01
	5.823546641575e-01
	0.000000000000e+00
69	6.900000000000e-07
	2.370083323860e+01
	3.400000000000e+01
	0.000000000000e+00
	2.200555492402e+01
	6.136945531103e-01
	0.000000000000e+00
70	7.000000000000e-07
	2.400000000000e+01
	3.400000000000e+01
	0.000000000000e+00
	2.400000000000e+01
	6.449301496838e-01
	0.000000000000e+00
71	7.100000000000e-07
	2.428174464551e+01
	3.400000000000e+01
	0.000000000000e+00
	2.587829763674e+01
	6.760618009405e-01
	0.000000000000e+00
72	7.200000000000e-07
	2.355760065334e+01
	3.400000000000e+01
	0.000000000000e+00
	2.105067102225e+01
	7.070898527880e-01
	0.000000000000e+00
73	7.300000000000e-07
	2.442932447001e+01
	3.400000000000e+01
	0.000000000000e+00
	2.686216313342e+01
	7.380146499826e-01
	0.000000000000e+00
74	7.400000000000e-07
	2.374250478218e+01
	3.400000000000e+01
	0.000000000000e+00
	2.228336521456e+01
	7.688365361336e-01
	0.000000000000e+00
75	7.500000000000e-07
	2.400000000000e+01
	3.400000000000e+01
	0.000000000000e+00
	2.400000000000e+01
	7.995558537068e-01
	0.000000000000e+00
76	7.600000000000e-07
	2.424249986371e+01
	3.400000000000e+01
	0.000000000000e+00
	2.561666575804e+01
	8.301729440281e-01
	0.000000000000e+00
77	7.700000000000e-07
	2.361922335356e+01
	3.400000000000e+01
	0.000000000000e+00
	2.146148902375e+01
	8.606881472877e-01
	0.000000000000e+00
78	7.800000000000e-07
	2.436952299581e+01
	3.400000000000e+01
	0.000000000000e+00
	2.646348663876e+01
	8.911018025439e-01
	0.000000000000e+00
79	7.900000000000e-07
	2.377837181213e+01
	3.400000000000e+01
	0.000000000000e+00
	2.252247874756e+01
	9.214142477264e-01
	0.000000000000e+00
80	8.000000000000e-07
	2.400000000000e+01
	3.400000000000e+01
	0.000000000000e+00
	2.400000000000e+01
	9.516258196404e-01
	0.000000000000e+00
81	8.100000000000e-07
	2.420872156697e+01
	3.400000000000e+01
	0.000000000000e+00
	2.539147711316e+01
	9.817368539705e-01
	0.000000000000e+00
82	8.200000000000e-07
	2.367226250318e+01
	3.400000000000e+01
	0.000000000000e+00
	2.181508335450e+01
	1.011747685284e+00
	0.000000000000e+00
83	8.300000000000e-07
	2.431805138997e+01
	3.400000000000e+01
	0.000000000000e+00
	2.612034259980e+01
	1.041658647035e+00
	0.000000000000e+00
84	8.400000000000e-07
	2.380924285090e+01
	3.400000000000e+01
	0.000000000000e+00
	2.272828567269e+01
	1.071470071567e+00
	0.000000000000e+00
85	8.500000000000e-07
	2.400000000000e+01
	3.400000000000e+01
	0.000000000000e+00
	2.400000000000e+01
	1.101182290120e+00
	0.000000000000e+00
86	8.600000000000e-07
	2.417964831755e+01
	3.400000000000e+01
	0.000000000000e+00
	2.519765545031e+01
	1.130795632828e+00
	0.000000000000e+00
87	8.700000000000e-07
	2.371791372231e+01
	3.400000000000e+01
	0.000000000000e+00
	2.211942481540e+01
	1.160310428731e+00
	0.000000000000e+00
88	8.800000000000e-07
	2.427374936826e+01
	3.400000000000e+01
	0.000000000000e+00
	2.582499578840e+01
	1.189727005769e+00
	0.000000000000e+00
89	8.900000000000e-07
	2.383581380021e+01
	3.400000000000e+01
	0.000000000000e+00
	2.290542533475e+01
	1.219045690794e+00
	0.000000000000e+00
90	9.000000000000e-07
	2.400000000000e+01
	3.400000000000e+01
	0.000000000000e+00
	2.400000000000e+01
	1.248266809571e+00
	0.000000000000e+00
91	9.100000000000e-07
	2.415462473986e+01
	3.400000000000e+01
	0.000000000000e+00
	2.503083159909e+01
	1.277390686777e+00
	0.000000000000e+00
92	9.200000000000e-07
	2.375720609075e+01
	3.400000000000e+01
	0.000000000000e+00
	2.238137393834e+01
	1.306417646012e+00
	0.000000000000e+00
93	9.300000000000e-07
	2.423561826480e+01
	3.400000000000e+01
	0.000000000000e+00
	2.557078843202e+01
	1.335348009798e+00
	0.000000000000e+00
94	9.400000000000e-07
	2.385868362822e+01
	3.400000000000e+01
	0.000000000000e+00
	2.305789085483e+01
	1.364182099584e+00
	0.000000000000e+00
95	9.500000000000e-07
	2.400000000000e+01
	3.400000000000e+01
	0.000000000000e+00
	2.400000000000e+01
	1.392920235749e+00
	0.000000000000e+00
96	9.600000000000e-07
	2.413308674695e+01
	3.400000000000e+01
	0.000000000000e+00
	2.488724497969e+01
	1.421562737606e+00
	0.000000000000e+00
97	9.700000000000e-07
	2.379102534568e+01
	3.400000000000e+01
	0.000000000000e+00
	2.260683563788e+01
	1.450109923405e+00
	0.000000000000e+00
98	9.800000000000e-07
	2.420279851991e+01
	3.400000000000e+01
	0.000000000000e+00
	2.535199013272e+01
	1.478562110338e+00
	0.000000000000e+00
99	9.900000000000e-07
	2.387836787161e+01
	3.400000000000e+01
	0.000000000000e+00
	2.318911914409e+01
	1.506919614539e+00
	0.000000000000e+00
100	1.000000000000e-06
	2.400000000000e+01
	3.400000000000e+01
	0.000000000000e+00
	2.400000000000e+01
	1.535182751094e+00
	0.000000000000e+00
101	1.010000000000e-06
	2.411454882466e+01
	3.400000000000e+01
	0.000000000000e+00
	2.476365883106e+01
	1.563351834036e+00
	0.000000000000e+00
102	1.020000000000e-06
	2.382013384816e+01
	3.400000000000e+01
	0.000000000000e+00
	2.280089232106e+01
	1.591427176356e+00
	0.000000000000e+00
103	1.030000000000e-06
	2.417455030369e+01
	3.400000000000e+01
	0.000000000000e+00
	2.516366869128e+01
	1.619409090003e+00
	0.000000000000e+00
104	1.040000000000e-06
	2.389531025691e+01
	3.400000000000e+01
	0.000000000000e+00
	2.330206837938e+01
	1.647297885887e+00
	0.000000000000e+00
105	1.050000000000e-06
	2.400000000000e+01
	3.400000000000e+01
	0.000000000000e+00
	2.400000000000e+01
	1.675093873884e+00
	0.000000000000e+00
106	1.060000000000e-06
	2.409859308707e+01
	3.400000000000e+01
	0.000000000000e+00
	2.465728724716e+01
	1.702797362838e+00
	0.000000000000e+00
107	1.070000000000e-06
	2.384518776842e+01
	3.400000000000e+01
	0.000000000000e+00
	2.296791845614e+01
	1.730408660566e+00
	0.000000000000e+00
108	1.080000000000e-06
	2.415023683867e+01
	3.400000000000e+01
	0.000000000000e+00
	2.500157892450e+01
	1.757928073861e+00
	0.000000000000e+00
109	1.090000000000e-06
	2.390989270307e+01
	3.400000000000e+01
	0.000000000000e+00
	2.339928468714e+01
	1.785355908495e+00
	0.000000000000e+00
110	1.100000000000e-06
	2.400000000000e+01
	3.400000000000e+01
	0.000000000000e+00
	2.400000000000e+01
	1.812692469220e+00
	0.000000000000e+00
111	1.110000000000e-06
	2.408485985647e+01
	3.400000000000e+01
	0.000000000000e+00
	2.456573237644e+01
	1.839938059778e+00
	0.000000000000e+00
112	1.120000000000e-06
	2.386675187743e+01
	3.400000000000e+01
	0.000000000000e+00
	2.311167918288e+01
	1.867092982897e+00
	0.000000000000e+00
113	1.130000000000e-06
	2.412931004540e+01
	3.400000000000e+01
	0.000000000000e+00
	2.486206696933e+01
	1.894157540298e+00
	0.000000000000e+00
114	1.140000000000e-06
	2.392244393080e+01
	3.400000000000e+01
	0.000000000000e+00
	2.348295953866e+01
	1.921132032700e+00
	0.000000000000e+00
115	1.150000000000e-06
	2.400000000000e+01
	3.400000000000e+01
	0.000000000000e+00
	2.400000000000e+01
	1.948016759819e+00
	0.000000000000e+00
116	1.160000000000e-06
	2.407303955534e+01
	3.400000000000e+01
	0.000000000000e+00
	2.448693036892e+01
	1.974812020375e+00
	0.000000000000e+00
117	1.170000000000e-06
	2.388531227806e+01
	3.400000000000e+01
	0.000000000000e+00
	2.323541518708e+01
	2.001518112093e+00
	0.000000000000e+00
118	1.180000000000e-06
	2.411129818751e+01
	3.400000000000e+01
	0.000000000000e+00
	2.474198791672e+01
	2.028135331708e+00
	0.000000000000e+00
119	1.190000000000e-06
	2.393324687262e+01
	3.400000000000e+01
	0.000000000000e+00
	2.355497915079e+01
	2.054663974967e+00
	0.000000000000e+00
120	1.200000000000e-06
	2.400000000000e+01
	3.400000000000e+01
	0.000000000000e+00
	2.400000000000e+01
	2.081104336632e+00
	0.000000000000e+00
121	1.210000000000e-06
	2.406286572787e+01
	3.400000000000e+01
	0.000000000000e+00
	2.441910485249e+01
	2.107456710487e+00
	0.000000000000e+00
122	1.220000000000e-06
	2.390128736293e+01
	3.400000000000e+01
	0.000000000000e+00
	2.334191575287e+01
	2.133721389334e+00
	0.000000000000e+00
123	1.230000000000e-06
	2.409579523775e+01
	3.400000000000e+01
	0.000000000000e+00
	2.463863491833e+01
	2.159898665006e+00
	0.000000000000e+00
124	1.240000000000e-06
	2.394254505081e+01
	3.400000000000e+01
	0.000000000000e+00
	2.361696700541e+01
	2.185988828359e+00
	0.000000000000e+00
125	1.250000000000e-06
	2.400000000000e+01
	3.400000000000e+01
	0.000000000000e+00
	2.400000000000e+01
	2.211992169286e+00
	0.000000000000e+00
126	1.260000000000e-06
	2.405410903342e+01
	3.400000000000e+01
	0.000000000000e+00
	2.436072688950e+01
	2.237908976712e+00
	0.000000000000e+00
127	1.270000000000e-06
	2.391503724590e+01
	3.400000000000e+01
	0.000000000000e+00
	2.343358163933e+01
	2.263739538603e+00
	0.000000000000e+00
128	1.280000000000e-06
	2.408245172523e+01
	3.400000000000e+01
	0.000000000000e+00
	2.454967816823e+01
	2.289484141964e+00
	0.000000000000e+00
129	1.290000000000e-06
	2.395054806695e+01
	3.400000000000e+01
	0.000000000000e+00
	2.367032044632e+01
	2.315143072848e+00
	0.000000000000e+00
130	1.300000000000e-06
	2.400000000000e+01
	3.400000000000e+01
	0.000000000000e+00
	2.400000000000e+01
	2.340716616354e+00
	0.000000000000e+00
131	1.310000000000e-06
	2.404657207667e+01
	3.400000000000e+01
	0.000000000000e+00
	2.431048051110e+01
	2.366205056631e+00
	0.000000000000e+00
132	1.320000000000e-06
	2.392687187985e+01
	3.400000000000e+01
	0.000000000000e+00
	2.351247919898e+01
	2.391608676887e+00
	0.000000000000e+00
133	1.330000000000e-06
	2.407096685758e+01
	3.400000000000e+01
	0.000000000000e+00
	2.447311238386e+01
	2.416927759383e+00
	0.000000000000e+00
134	1.340000000000e-06
	2.395743632677e+01
	3.400000000000e+01
	0.000000000000e+00
	2.371624217848e+01
	2.442162585443e+00
	0.000000000000e+00
135	1.350000000000e-06
	2.400000000000e+01
	3.400000000000e+01
	0.000000000000e+00
	2.400000000000e+01
	2.467313435453e+00
	0.000000000000e+00
136	1.360000000000e-06
	2.404008495786e+01
	3.400000000000e+01
	0.000000000000e+00
	2.426723305243e+01
	2.492380588869e+00
	0.000000000000e+00
137	1.370000000000e-06
	2.393705804368e+01
	3.400000000000e+01
	0.000000000000e+00
	2.358038695789e+01
	2.517364324214e+00
	0.000000000000e+00
138	1.380000000000e-06
	2.406108174038e+01
	3.400000000000e+01
	0.000000000000e+00
	2.440721160254e+01
	2.542264919086e+00
	0.000000000000e+00
139	1.390000000000e-06
	2.396336510695e+01
	3.400000000000e+01
	0.000000000000e+00
	2.375576737965e+01
	2.567082650158e+00
	0.000000000000e+00
140	1.400000000000e-06
	2.400000000000e+01
	3.400000000000e+01
	0.000000000000e+00
	2.400000000000e+01
	2.591817793183e+00
	0.000000000000e+00
141	1.410000000000e-06
	2.403450144297e+01
	3.400000000000e+01
	0.000000000000e+00
	2.423000961979e+01
	2.616470622996e+00
	0.000000000000e+00
142	1.420000000000e-06
	2.394582535615e+01
	3.400000000000e+01
	0.000000000000e+00
	2.363883570764e+01
	2.641041413518e+00
	0.000000000000e+00
143	1.430000000000e-06
	2.405257354116e+01
	3.400000000000e+01
	0.000000000000e+00
	2.435049027440e+01
	2.665530437757e+00
	0.000000000000e+00
144	1.440000000000e-06
	2.396846805533e+01
	3.400000000000e+01
	0.000000000000e+00
	2.378978703556e+01
	2.689937967815e+00
	0.000000000000e+00
145	1.450000000000e-06
	2.400000000000e+01
	3.400000000000e+01
	0.000000000000e+00
	2.400000000000e+01
	2.714264274886e+00
	0.000000000000e+00
146	1.460000000000e-06
	2.402969566716e+01
	3.400000000000e+01
	0.000000000000e+00
	2.419797111441e+01
	2.738509629263e+00
	0.000000000000e+00
147	1.470000000000e-06
	2.395337145192e+01
	3.400000000000e+01
	0.000000000000e+00
	2.368914301277e+01
	2.762674300339e+00
	0.000000000000e+00
148	1.480000000000e-06
	2.404525046622e+01
	3.400000000000e+01
	0.000000000000e+00
	2.430166977483e+01
	2.786758556611e+00
	0.000000000000e+00
149	1.490000000000e-06
	2.397286020371e+01
	3.400000000000e+01
	0.000000000000e+00
	2.381906802476e+01
	2.810762665681e+00
	0.000000000000e+00
150	1.500000000000e-06
	2.400000000000e+01
	3.400000000000e+01
	0.000000000000e+00
	2.400000000000e+01
	2.834686894262e+00
	0.000000000000e+00
151	1.510000000000e-06
	2.402555929759e+01
	3.400000000000e+01
	0.000000000000e+00
	2.417039531727e+01
	2.858531508180e+00
	0.000000000000e+00
152	1.520000000000e-06
	2.395986643673e+01
	3.400000000000e+01
	0.000000000000e+00
	2.373244291156e+01
	2.882296772374e+00
	0.000000000000e+00
153	1.530000000000e-06
	2.403894743722e+01
	3.400000000000e+01
	0.000000000000e+00
	2.425964958144e+01
	2.905982950903e+00
	0.000000000000e+00
154	1.540000000000e-06
	2.397664056086e+01
	3.400000000000e+01
	0.000000000000e+00
	2.384427040572e+01
	2.929590306948e+00
	0.000000000000e+00
155	1.550000000000e-06
	2.400000000000e+01
	3.400000000000e+01
	0.000000000000e+00
	2.400000000000e+01
	2.953119102813e+00
	0.000000000000e+00
156	1.560000000000e-06
	2.402199909131e+01
	3.400000000000e+01
	0.000000000000e+00
	2.414666060872e+01
	2.976569599928e+00
	0.000000000000e+00
157	1.570000000000e-06
	2.396545672197e+01
	3.400000000000e+01
	0.000000000000e+00
	2.376971147983e+01
	2.999942058856e+00
	0.000000000000e+00
158	1.580000000000e-06
	2.403352236987e+01
	3.400000000000e+01
	0.000000000000e+00
	2.422348246582e+01
	3.023236739290e+00
	0.000000000000e+00
159	1.590000000000e-06
	2.397989434441e+01
	3.400000000000e+01
	0.000000000000e+00
	2.386596229604e+01
	3.046453900060e+00
	0.000000000000e+00
160	1.600000000000e-06
	2.400000000000e+01
	3.400000000000e+01
	0.000000000000e+00
	2.400000000000e+01
	3.069593799136e+00
	0.000000000000e+00
161	1.610000000000e-06
	2.401893479336e+01
	3.400000000000e+01
	0.000000000000e+00
	2.412623195576e+01
	3.092656693626e+00
	0.000000000000e+00
162	1.620000000000e-06
	2.397026832507e+01
	3.400000000000e+01
	0.000000000000e+00
	2.380178883381e+01
	3.115642839787e+00
	0.000000000000e+00
163	1.630000000000e-06
	2.402885297114e+01
	3.400000000000e+01
	0.000000000000e+00
	2.419235314093e+01
	3.138552493020e+00
	0.000000000000e+00
164	1.640000000000e-06
	2.398269490186e+01
	3.400000000000e+01
	0.000000000000e+00
	2.388463267906e+01
	3.161385907876e+00
	0.000000000000e+00
165	1.650000000000e-06
	2.400000000000e+01
	3.400000000000e+01
	0.000000000000e+00
	2.400000000000e+01
	3.184143338062e+00
	0.000000000000e+00
166	1.660000000000e-06
	2.401629732768e+01
	3.400000000000e+01
	0.000000000000e+00
	2.410864885120e+01
	3.206825036436e+00
	0.000000000000e+00
167	1.670000000000e-06
	2.397440971024e+01
	3.400000000000e+01
	0.000000000000e+00
	2.382939806825e+01
	3.229431255018e+00
	0.000000000000e+00
168	1.680000000000e-06
	2.402483398240e+01
	3.400000000000e+01
	0.000000000000e+00
	2.416555988269e+01
	3.251962244990e+00
	0.000000000000e+00
169	1.690000000000e-06
	2.398510536400e+01
	3.400000000000e+01
	0.000000000000e+00
	2.390070242665e+01
	3.274418256694e+00
	0.000000000000e+00
170	1.700000000000e-06
	2.400000000000e+01
	3.400000000000e+01
	0.000000000000e+00
	2.400000000000e+01
	3.296799539644e+00
	0.000000000000e+00
171	1.710000000000e-06
	2.401402723993e+01
	3.400000000000e+01
	0.000000000000e+00
	2.409351493286e+01
	3.319106342519e+00
	0.000000000000e+00
172	1.720000000000e-06
	2.397797423348e+01
	3.400000000000e+01
	0.000000000000e+00
	2.385316155655e+01
	3.341338913174e+00
	0.000000000000e+00
173	1.730000000000e-06
	2.402137480674e+01
	3.400000000000e+01
	0.000000000000e+00
	2.414249871160e+01
	3.363497498637e+00
	0.000000000000e+00
174	1.740000000000e-06
	2.398718006799e+01
	3.400000000000e+01
	0.000000000000e+00
	2.391453378657e+01
	3.385582345115e+00
	0.000000000000e+00
175	1.750000000000e-06
	2.400000000000e+01
	3.400000000000e+01
	0.000000000000e+00
	2.400000000000e+01
	3.407593697996e+00
	0.000000000000e+00
176	1.760000000000e-06
	2.401207335729e+01
	3.400000000000e+01
	0.000000000000e+00
	2.408048904862e+01
	3.429531801849e+00
	0.000000000000e+00
177	1.770000000000e-06
	2.398104224707e+01
	3.400000000000e+01
	0.000000000000e+00
	2.387361498047e+01
	3.451396900434e+00
	0.000000000000e+00
178	1.780000000000e-06
	2.401839746666e+01
	3.400000000000e+01
	0.000000000000e+00
	2.412264977771e+01
	3.473189236694e+00
	0.000000000000e+00
179	1.790000000000e-06
	2.398896578226e+01
	3.400000000000e+01
	0.000000000000e+00
	2.392643854839e+01
	3.494909052767e+00
	0.000000000000e+00
180	1.800000000000e-06
	2.400000000000e+01
	3.400000000000e+01
	0.000000000000e+00
	2.400000000000e+01
	3.516556589985e+00
	0.000000000000e+00
181	1.810000000000e-06
	2.401039163492e+01
	3.400000000000e+01
	0.000000000000e+00
	2.406927756617e+01
	3.538132088876e+00
	0.000000000000e+00
182	1.820000000000e-06
	2.398368291084e+01
	3.400000000000e+01
	0.000000000000e+00
	2.389121940559e+01
	3.559635789169e+00
	0.000000000000e+00
183	1.830000000000e-06
	2.401583484630e+01
	3.400000000000e+01
	0.000000000000e+00
	2.410556564198e+01
	3.581067929792e+00
	0.000000000000e+00
184	1.840000000000e-06
	2.399050276078e+01
	3.400000000000e+01
	0.000000000000e+00
	2.393668507184e+01
	3.602428748883e+00
	0.000000000000e+00
185	1.850000000000e-06
	2.400000000000e+01
	3.400000000000e+01
	0.000000000000e+00
	2.400000000000e+01
	3.623718483782e+00
	0.000000000000e+00
186	1.860000000000e-06
	2.400894416307e+01
	3.400000000000e+01
	0.000000000000e+00
	2.405962775379e+01
	3.644937371044e+00
	0.000000000000e+00
187	1.870000000000e-06
	2.398595575121e+01
	3.400000000000e+01
	0.000000000000e+00
	2.390637167471e+01
	3.666085646433e+00
	0.000000000000e+00
188	1.880000000000e-06
	2.401362917851e+01
	3.400000000000e+01
	0.000000000000e+00
	2.409086119009e+01
	3.687163544931e+00
	0.000000000000e+00
189	1.890000000000e-06
	2.399182565045e+01
	3.400000000000e+01
	0.000000000000e+00
	2.394550433631e+01
	3.708171300736e+00
	0.000000000000e+00
190	1.900000000000e-06
	2.400000000000e+01
	3.400000000000e+01
	0.000000000000e+00
	2.400000000000e+01
	3.729109147269e+00
	0.000000000000e+00
191	1.910000000000e-06
	2.400769831249e+01
	3.400000000000e+01
	0.000000000000e+00
	2.405132208330e+01
	3.749977317173e+00
	0.000000000000e+00
192	1.920000000000e-06
	2.398791200304e+01
	3.400000000000e+01
	0.000000000000e+00
	2.391941335361e+01
	3.770776042316e+00
	0.000000000000e+00
193	1.930000000000e-06
	2.401173074266e+01
	3.400000000000e+01
	0.000000000000e+00
	2.407820495106e+01
	3.791505553795e+00
	0.000000000000e+00
194	1.940000000000e-06
	2.399296427214e+01
	3.400000000000e+01
	0.000000000000e+00
	2.395309514758e+01
	3.812166081939e+00
	0.000000000000e+00
195	1.950000000000e-06
	2.400000000000e+01
	3.400000000000e+01
	0.000000000000e+00
	2.400000000000e+01
	3.832757856308e+00
	0.000000000000e+00
196	1.960000000000e-06
	2.400662599897e+01
	3.400000000000e+01
	0.000000000000e+00
	2.404417332646e+01
	3.853281105702e+00
	0.000000000000e+00
197	1.970000000000e-06
	2.398959576460e+01
	3.400000000000e+01
	0.000000000000e+00
	2.393063843066e+01
	3.873736058156e+00
	0.000000000000e+00
198	1.980000000000e-06
	2.401009674378e+01
	3.400000000000e+01